<?xml version="1.0" encoding="UTF-8"?>

<!-- generated on 2026-05-02T14:46:46.795213+05:30 by Eclipse SUMO GUI 1.26.0
<sumoConfiguration xmlns:xsi="http://www.w3.org/2001/XMLSchema-instance" xsi:noNamespaceSchemaLocation="http://sumo.dlr.de/xsd/sumoConfiguration.xsd">

    <input>
        <net-file value="D:\AI Traffic Flow\netsignal_sumo\config\../network/grid6x6.net.xml"/>
        <route-files value="D:\AI Traffic Flow\netsignal_sumo\config\../flows/flow.xml"/>
    </input>

    <output>
        <queue-output value="D:\AI Traffic Flow\netsignal_sumo\config\../output/queue.xml"/>
        <summary-output value="D:\AI Traffic Flow\netsignal_sumo\config\../output/summary.xml"/>
        <tripinfo-output value="D:\AI Traffic Flow\netsignal_sumo\config\../output/tripinfo.xml"/>
        <lanedata-output value="D:\AI Traffic Flow\netsignal_sumo\config\../output/lanedata.xml"/>
    </output>

    <time>
        <begin value="0"/>
        <end value="3600"/>
        <step-length value="1"/>
    </time>

    <processing>
        <ignore-route-errors value="true"/>
        <collision.action value="warn"/>
        <max-num-vehicles value="1500"/>
        <time-to-teleport value="300"/>
    </processing>

    <routing>
        <device.rerouting.probability value="0.3"/>
        <device.rerouting.period value="60"/>
        <device.rerouting.pre-period value="0"/>
    </routing>

    <report>
        <verbose value="false"/>
        <no-warnings value="false"/>
        <log value="D:\AI Traffic Flow\netsignal_sumo\config\../output/sumo.log"/>
        <duration-log.statistics value="true"/>
    </report>

    <traci_server>
        <remote-port value="8813"/>
    </traci_server>

    <random_number>
        <seed value="42"/>
    </random_number>

    <gui_only>
        <gui-settings-file value="D:\AI Traffic Flow\netsignal_sumo\config\netsignal.view.xml"/>
        <quit-on-end value="false"/>
        <delay value="50"/>
    </gui_only>

</sumoConfiguration>
-->

<meandata xmlns:xsi="http://www.w3.org/2001/XMLSchema-instance" xsi:noNamespaceSchemaLocation="http://sumo.dlr.de/xsd/meandata_file.xsd">
    <interval begin="0.00" end="144.00" id="DEFAULT_LANEDATA">
        <edge id="A0A1">
            <lane id="A0A1_0" sampledSeconds="349.22" traveltime="23.17" overlapTraveltime="23.60" density="8.52" overlapDensity="8.69" laneDensity="8.52" occupancy="3.87" waitingTime="7.00" timeLoss="29.12" speed="12.02" speedRelative="0.87" departed="9" arrived="0" entered="0" left="16" laneChangedFrom="1" laneChangedTo="10" flow="369.40"/>
            <lane id="A0A1_1" sampledSeconds="162.95" traveltime="21.88" overlapTraveltime="22.23" density="4.03" overlapDensity="4.05" laneDensity="4.03" occupancy="1.82" waitingTime="0.00" timeLoss="7.51" speed="12.76" speedRelative="0.92" departed="15" arrived="0" entered="0" left="3" laneChangedFrom="10" laneChangedTo="1" flow="185.04"/>
        </edge>
        <edge id="A1A2">
            <lane id="A1A2_0" sampledSeconds="376.19" traveltime="22.82" overlapTraveltime="23.29" density="9.19" overlapDensity="9.36" laneDensity="9.19" occupancy="4.14" waitingTime="0.00" timeLoss="26.77" speed="12.18" speedRelative="0.88" departed="0" arrived="0" entered="16" left="14" laneChangedFrom="3" laneChangedTo="2" flow="404.76"/>
            <lane id="A1A2_1" sampledSeconds="45.10" traveltime="21.43" overlapTraveltime="21.81" density="1.09" overlapDensity="1.12" laneDensity="1.09" occupancy="0.49" waitingTime="0.00" timeLoss="2.35" speed="13.01" speedRelative="0.94" departed="0" arrived="0" entered="3" left="3" laneChangedFrom="2" laneChangedTo="3" flow="51.33"/>
        </edge>
        <edge id="A2A3">
            <lane id="A2A3_0" sampledSeconds="283.24" traveltime="23.35" overlapTraveltime="23.81" density="6.96" overlapDensity="7.05" laneDensity="6.96" occupancy="3.12" waitingTime="10.00" timeLoss="29.03" speed="11.92" speedRelative="0.86" departed="0" arrived="0" entered="14" left="7" laneChangedFrom="2" laneChangedTo="1" flow="299.42"/>
            <lane id="A2A3_1" sampledSeconds="65.89" traveltime="27.06" overlapTraveltime="27.39" density="1.61" overlapDensity="1.64" laneDensity="1.61" occupancy="0.73" waitingTime="9.00" timeLoss="12.75" speed="10.36" speedRelative="0.75" departed="0" arrived="0" entered="3" left="3" laneChangedFrom="1" laneChangedTo="2" flow="59.89"/>
        </edge>
        <edge id="A3A4">
            <lane id="A3A4_0" sampledSeconds="148.04" traveltime="22.50" overlapTraveltime="22.86" density="3.63" overlapDensity="3.68" laneDensity="3.63" occupancy="1.63" waitingTime="0.00" timeLoss="8.34" speed="12.41" speedRelative="0.89" departed="0" arrived="0" entered="7" left="6" laneChangedFrom="0" laneChangedTo="1" flow="162.11"/>
            <lane id="A3A4_1" sampledSeconds="61.10" traveltime="21.08" overlapTraveltime="21.41" density="1.50" overlapDensity="1.52" laneDensity="1.50" occupancy="0.67" waitingTime="0.00" timeLoss="2.81" speed="13.25" speedRelative="0.95" departed="0" arrived="0" entered="3" left="2" laneChangedFrom="1" laneChangedTo="0" flow="71.70"/>
        </edge>
        <edge id="A4A5">
            <lane id="A4A5_0" sampledSeconds="113.86" traveltime="21.92" overlapTraveltime="22.27" density="2.81" overlapDensity="2.83" laneDensity="2.81" occupancy="1.26" waitingTime="0.00" timeLoss="5.05" speed="12.74" speedRelative="0.92" departed="0" arrived="3" entered="6" left="0" laneChangedFrom="0" laneChangedTo="0" flow="128.72"/>
            <lane id="A4A5_1" sampledSeconds="31.57" traveltime="20.81" overlapTraveltime="21.15" density="0.78" overlapDensity="0.79" laneDensity="0.78" occupancy="0.35" waitingTime="0.00" timeLoss="1.08" speed="13.41" speedRelative="0.97" departed="0" arrived="1" entered="2" left="0" laneChangedFrom="0" laneChangedTo="0" flow="37.51"/>
        </edge>
    </interval>
</meandata>
