<?xml version="1.0" encoding="UTF-8"?>

<!-- generated on 2026-05-02T20:43:30.172460+05:30 by Eclipse SUMO GUI 1.26.0
<sumoConfiguration xmlns:xsi="http://www.w3.org/2001/XMLSchema-instance" xsi:noNamespaceSchemaLocation="http://sumo.dlr.de/xsd/sumoConfiguration.xsd">

    <input>
        <net-file value="D:\AI Traffic Flow\netsignal_sumo\config\../network/grid6x6.net.xml"/>
        <route-files value="D:\AI Traffic Flow\netsignal_sumo\config\../flows/flow.xml"/>
    </input>

    <output>
        <queue-output value="D:\AI Traffic Flow\netsignal_sumo\config\../output/queue.xml"/>
        <summary-output value="D:\AI Traffic Flow\netsignal_sumo\config\../output/summary.xml"/>
        <tripinfo-output value="D:\AI Traffic Flow\netsignal_sumo\config\../output/tripinfo.xml"/>
        <lanedata-output value="D:\AI Traffic Flow\netsignal_sumo\config\../output/lanedata.xml"/>
    </output>

    <time>
        <begin value="0"/>
        <end value="3600"/>
        <step-length value="1"/>
    </time>

    <processing>
        <ignore-route-errors value="true"/>
        <collision.action value="warn"/>
        <max-num-vehicles value="1500"/>
        <time-to-teleport value="300"/>
    </processing>

    <routing>
        <device.rerouting.probability value="0.3"/>
        <device.rerouting.period value="60"/>
        <device.rerouting.pre-period value="0"/>
    </routing>

    <report>
        <verbose value="false"/>
        <no-warnings value="false"/>
        <log value="D:\AI Traffic Flow\netsignal_sumo\config\../output/sumo.log"/>
        <duration-log.statistics value="true"/>
    </report>

    <traci_server>
        <remote-port value="8813"/>
    </traci_server>

    <random_number>
        <seed value="42"/>
    </random_number>

    <gui_only>
        <gui-settings-file value="D:\AI Traffic Flow\netsignal_sumo\config\netsignal.view.xml"/>
        <quit-on-end value="false"/>
        <delay value="50"/>
    </gui_only>

</sumoConfiguration>
-->

<tripinfos xmlns:xsi="http://www.w3.org/2001/XMLSchema-instance" xsi:noNamespaceSchemaLocation="http://sumo.dlr.de/xsd/tripinfo_file.xsd">
    <tripinfo id="f0.1" depart="6.00" departLane="A0A1_1" departPos="4.60" departSpeed="13.89" departDelay="0.00" arrival="118.00" arrivalLane="A4A5_1" arrivalPos="279.20" arrivalSpeed="13.33" duration="112.00" routeLength="1474.60" waitingTime="0.00" waitingCount="0" stopTime="0.00" timeLoss="5.07" rerouteNo="0" devices="tripinfo_f0.1" vType="car" speedFactor="1.07" vaporized=""/>
    <tripinfo id="f0.0" depart="0.00" departLane="A0A1_0" departPos="4.60" departSpeed="13.17" departDelay="0.00" arrival="119.00" arrivalLane="A4A5_0" arrivalPos="279.20" arrivalSpeed="12.90" duration="119.00" routeLength="1474.60" waitingTime="0.00" waitingCount="0" stopTime="0.00" timeLoss="6.73" rerouteNo="0" devices="tripinfo_f0.0" vType="car" speedFactor="0.95" vaporized=""/>
    <tripinfo id="f0.2" depart="12.00" departLane="A0A1_0" departPos="4.60" departSpeed="11.93" departDelay="0.00" arrival="129.00" arrivalLane="A4A5_0" arrivalPos="279.20" arrivalSpeed="13.17" duration="117.00" routeLength="1474.60" waitingTime="0.00" waitingCount="0" stopTime="0.00" timeLoss="10.44" rerouteNo="0" devices="tripinfo_f0.2" vType="car" speedFactor="1.16" vaporized=""/>
    <tripinfo id="f0.5" depart="30.00" departLane="A0A1_0" departPos="4.60" departSpeed="12.85" departDelay="0.00" arrival="142.00" arrivalLane="A4A5_0" arrivalPos="279.20" arrivalSpeed="13.26" duration="112.00" routeLength="1474.60" waitingTime="0.00" waitingCount="0" stopTime="0.00" timeLoss="5.41" rerouteNo="0" devices="tripinfo_f0.5" vType="car" speedFactor="1.08" vaporized=""/>
    <tripinfo id="f0.4" depart="24.00" departLane="A0A1_1" departPos="4.60" departSpeed="12.93" departDelay="0.00" arrival="145.00" arrivalLane="A4A5_0" arrivalPos="279.20" arrivalSpeed="12.59" duration="121.00" routeLength="1474.60" waitingTime="0.00" waitingCount="0" stopTime="0.00" timeLoss="6.65" rerouteNo="0" devices="tripinfo_f0.4" vType="car" speedFactor="0.93" vaporized=""/>
    <tripinfo id="f0.3" depart="18.00" departLane="A0A1_1" departPos="4.60" departSpeed="12.24" departDelay="0.00" arrival="151.00" arrivalLane="A4A5_0" arrivalPos="279.20" arrivalSpeed="12.03" duration="133.00" routeLength="1474.60" waitingTime="0.00" waitingCount="0" stopTime="0.00" timeLoss="11.90" rerouteNo="0" devices="tripinfo_f0.3 routing_f0.3" vType="car" speedFactor="0.88" vaporized=""/>
    <tripinfo id="f0.6" depart="36.00" departLane="A0A1_1" departPos="4.60" departSpeed="13.89" departDelay="0.00" arrival="153.00" arrivalLane="A4A5_0" arrivalPos="279.20" arrivalSpeed="13.78" duration="117.00" routeLength="1474.60" waitingTime="1.00" waitingCount="1" stopTime="0.00" timeLoss="10.82" rerouteNo="0" devices="tripinfo_f0.6" vType="car" speedFactor="1.03" vaporized=""/>
    <tripinfo id="f0.7" depart="42.00" departLane="A0A1_0" departPos="4.60" departSpeed="12.36" departDelay="0.00" arrival="154.00" arrivalLane="A4A5_1" arrivalPos="279.20" arrivalSpeed="13.14" duration="112.00" routeLength="1474.60" waitingTime="0.00" waitingCount="0" stopTime="0.00" timeLoss="5.36" rerouteNo="0" devices="tripinfo_f0.7" vType="car" speedFactor="1.13" vaporized=""/>
    <tripinfo id="f0.8" depart="48.00" departLane="A0A1_1" departPos="4.60" departSpeed="12.26" departDelay="0.00" arrival="175.00" arrivalLane="A4A5_0" arrivalPos="279.20" arrivalSpeed="11.60" duration="127.00" routeLength="1474.60" waitingTime="0.00" waitingCount="0" stopTime="0.00" timeLoss="5.98" rerouteNo="0" devices="tripinfo_f0.8 routing_f0.8" vType="car" speedFactor="0.88" vaporized=""/>
    <tripinfo id="f0.10" depart="60.00" departLane="A0A1_1" departPos="4.60" departSpeed="13.89" departDelay="0.00" arrival="222.00" arrivalLane="A4A5_0" arrivalPos="279.20" arrivalSpeed="13.03" duration="162.00" routeLength="1474.60" waitingTime="42.00" waitingCount="1" stopTime="0.00" timeLoss="55.59" rerouteNo="0" devices="tripinfo_f0.10 routing_f0.10" vType="car" speedFactor="1.00" vaporized=""/>
    <tripinfo id="f0.11" depart="66.00" departLane="A0A1_0" departPos="4.60" departSpeed="11.83" departDelay="0.00" arrival="259.00" arrivalLane="A4A5_0" arrivalPos="279.20" arrivalSpeed="13.40" duration="193.00" routeLength="1474.60" waitingTime="71.00" waitingCount="2" stopTime="0.00" timeLoss="86.20" rerouteNo="0" devices="tripinfo_f0.11 routing_f0.11" vType="car" speedFactor="0.99" vaporized=""/>
    <tripinfo id="f0.13" depart="78.00" departLane="A0A1_1" departPos="4.60" departSpeed="12.99" departDelay="0.00" arrival="259.00" arrivalLane="A4A5_1" arrivalPos="279.20" arrivalSpeed="13.38" duration="181.00" routeLength="1474.60" waitingTime="56.00" waitingCount="2" stopTime="0.00" timeLoss="74.38" rerouteNo="0" devices="tripinfo_f0.13" vType="car" speedFactor="1.16" vaporized=""/>
    <tripinfo id="f0.14" depart="84.00" departLane="A0A1_0" departPos="4.60" departSpeed="11.82" departDelay="0.00" arrival="296.00" arrivalLane="A4A5_0" arrivalPos="279.20" arrivalSpeed="12.51" duration="212.00" routeLength="1474.60" waitingTime="76.00" waitingCount="3" stopTime="0.00" timeLoss="97.83" rerouteNo="0" devices="tripinfo_f0.14" vType="car" speedFactor="0.94" vaporized=""/>
    <tripinfo id="f0.9" depart="54.00" departLane="A0A1_1" departPos="4.60" departSpeed="11.74" departDelay="0.00" arrival="298.00" arrivalLane="A4A5_0" arrivalPos="279.20" arrivalSpeed="11.27" duration="244.00" routeLength="1474.60" waitingTime="99.00" waitingCount="3" stopTime="0.00" timeLoss="117.58" rerouteNo="0" devices="tripinfo_f0.9" vType="car" speedFactor="0.84" vaporized=""/>
    <tripinfo id="f0.15" depart="90.00" departLane="A0A1_1" departPos="4.60" departSpeed="12.66" departDelay="0.00" arrival="329.00" arrivalLane="A4A5_0" arrivalPos="279.20" arrivalSpeed="12.99" duration="239.00" routeLength="1474.60" waitingTime="109.00" waitingCount="4" stopTime="0.00" timeLoss="131.73" rerouteNo="0" devices="tripinfo_f0.15" vType="car" speedFactor="0.99" vaporized=""/>
    <tripinfo id="f0.12" depart="72.00" departLane="A0A1_1" departPos="4.60" departSpeed="11.32" departDelay="0.00" arrival="333.00" arrivalLane="A4A5_0" arrivalPos="279.20" arrivalSpeed="10.66" duration="261.00" routeLength="1474.60" waitingTime="102.00" waitingCount="4" stopTime="0.00" timeLoss="130.74" rerouteNo="0" devices="tripinfo_f0.12 routing_f0.12" vType="car" speedFactor="0.82" vaporized=""/>
    <tripinfo id="f0.16" depart="96.00" departLane="A0A1_0" departPos="4.60" departSpeed="11.57" departDelay="0.00" arrival="344.00" arrivalLane="A4A5_0" arrivalPos="279.20" arrivalSpeed="13.29" duration="248.00" routeLength="1474.60" waitingTime="111.00" waitingCount="5" stopTime="0.00" timeLoss="141.28" rerouteNo="0" devices="tripinfo_f0.16" vType="car" speedFactor="1.13" vaporized=""/>
    <tripinfo id="f0.18" depart="108.00" departLane="A0A1_1" departPos="4.60" departSpeed="13.89" departDelay="0.00" arrival="344.00" arrivalLane="A4A5_1" arrivalPos="279.20" arrivalSpeed="13.64" duration="236.00" routeLength="1474.60" waitingTime="106.00" waitingCount="4" stopTime="0.00" timeLoss="129.41" rerouteNo="0" devices="tripinfo_f0.18" vType="car" speedFactor="1.00" vaporized=""/>
    <tripinfo id="f0.22" depart="132.00" departLane="A0A1_0" departPos="4.60" departSpeed="12.62" departDelay="0.00" arrival="350.00" arrivalLane="A4A5_0" arrivalPos="279.20" arrivalSpeed="13.56" duration="218.00" routeLength="1474.60" waitingTime="83.00" waitingCount="5" stopTime="0.00" timeLoss="111.04" rerouteNo="0" devices="tripinfo_f0.22" vType="car" speedFactor="1.12" vaporized=""/>
    <tripinfo id="f0.17" depart="102.00" departLane="A0A1_1" departPos="4.60" departSpeed="12.18" departDelay="0.00" arrival="352.00" arrivalLane="A4A5_0" arrivalPos="279.20" arrivalSpeed="10.95" duration="250.00" routeLength="1474.60" waitingTime="100.00" waitingCount="4" stopTime="0.00" timeLoss="128.23" rerouteNo="0" devices="tripinfo_f0.17 routing_f0.17" vType="car" speedFactor="0.88" vaporized=""/>
    <tripinfo id="f0.19" depart="114.00" departLane="A0A1_0" departPos="4.60" departSpeed="12.27" departDelay="0.00" arrival="354.00" arrivalLane="A4A5_0" arrivalPos="279.20" arrivalSpeed="13.85" duration="240.00" routeLength="1474.60" waitingTime="103.00" waitingCount="4" stopTime="0.00" timeLoss="133.55" rerouteNo="0" devices="tripinfo_f0.19" vType="car" speedFactor="1.10" vaporized=""/>
    <tripinfo id="f0.21" depart="126.00" departLane="A0A1_1" departPos="4.60" departSpeed="13.63" departDelay="0.00" arrival="355.00" arrivalLane="A4A5_0" arrivalPos="279.20" arrivalSpeed="13.06" duration="229.00" routeLength="1474.60" waitingTime="86.00" waitingCount="4" stopTime="0.00" timeLoss="122.12" rerouteNo="0" devices="tripinfo_f0.21 routing_f0.21" vType="car" speedFactor="1.05" vaporized=""/>
    <tripinfo id="f0.20" depart="120.00" departLane="A0A1_1" departPos="4.60" departSpeed="12.14" departDelay="0.00" arrival="359.00" arrivalLane="A4A5_0" arrivalPos="279.20" arrivalSpeed="11.12" duration="239.00" routeLength="1474.60" waitingTime="89.00" waitingCount="4" stopTime="0.00" timeLoss="117.05" rerouteNo="0" devices="tripinfo_f0.20 routing_f0.20" vType="car" speedFactor="0.87" vaporized=""/>
    <tripinfo id="f0.24" depart="144.00" departLane="A0A1_1" departPos="4.60" departSpeed="10.11" departDelay="0.00" arrival="374.00" arrivalLane="A4A5_0" arrivalPos="279.20" arrivalSpeed="13.63" duration="230.00" routeLength="1474.60" waitingTime="95.00" waitingCount="4" stopTime="0.00" timeLoss="123.34" rerouteNo="0" devices="tripinfo_f0.24" vType="car" speedFactor="1.08" vaporized=""/>
    <tripinfo id="f0.23" depart="138.00" departLane="A0A1_1" departPos="4.60" departSpeed="13.47" departDelay="0.00" arrival="377.00" arrivalLane="A4A5_0" arrivalPos="279.20" arrivalSpeed="12.94" duration="239.00" routeLength="1474.60" waitingTime="106.00" waitingCount="4" stopTime="0.00" timeLoss="129.39" rerouteNo="0" devices="tripinfo_f0.23" vType="car" speedFactor="0.97" vaporized=""/>
    <tripinfo id="f0.25" depart="150.00" departLane="A0A1_0" departPos="4.60" departSpeed="9.00" departDelay="0.00" arrival="394.00" arrivalLane="A4A5_0" arrivalPos="279.20" arrivalSpeed="12.72" duration="244.00" routeLength="1474.60" waitingTime="101.00" waitingCount="5" stopTime="0.00" timeLoss="130.92" rerouteNo="0" devices="tripinfo_f0.25" vType="car" speedFactor="0.94" vaporized=""/>
    <tripinfo id="f0.26" depart="156.00" departLane="A0A1_1" departPos="4.60" departSpeed="0.00" departDelay="0.00" arrival="397.00" arrivalLane="A4A5_0" arrivalPos="279.20" arrivalSpeed="12.21" duration="241.00" routeLength="1474.60" waitingTime="94.00" waitingCount="4" stopTime="0.00" timeLoss="123.26" rerouteNo="0" devices="tripinfo_f0.26 routing_f0.26" vType="car" speedFactor="0.91" vaporized=""/>
    <tripinfo id="f0.32" depart="192.00" departLane="A0A1_1" departPos="4.60" departSpeed="3.26" departDelay="0.00" arrival="398.00" arrivalLane="A4A5_1" arrivalPos="279.20" arrivalSpeed="12.61" duration="206.00" routeLength="1474.60" waitingTime="70.00" waitingCount="4" stopTime="0.00" timeLoss="99.01" rerouteNo="0" devices="tripinfo_f0.32" vType="car" speedFactor="1.01" vaporized=""/>
    <tripinfo id="f0.29" depart="174.00" departLane="A0A1_1" departPos="4.60" departSpeed="3.22" departDelay="0.00" arrival="399.00" arrivalLane="A4A5_0" arrivalPos="279.20" arrivalSpeed="12.93" duration="225.00" routeLength="1474.60" waitingTime="83.00" waitingCount="4" stopTime="0.00" timeLoss="111.54" rerouteNo="0" devices="tripinfo_f0.29" vType="car" speedFactor="0.94" vaporized=""/>
    <tripinfo id="f0.34" depart="204.00" departLane="A0A1_1" departPos="4.60" departSpeed="2.75" departDelay="0.00" arrival="402.00" arrivalLane="A4A5_0" arrivalPos="279.20" arrivalSpeed="12.80" duration="198.00" routeLength="1474.60" waitingTime="62.00" waitingCount="3" stopTime="0.00" timeLoss="91.24" rerouteNo="0" devices="tripinfo_f0.34" vType="car" speedFactor="1.15" vaporized=""/>
    <tripinfo id="f0.36" depart="216.00" departLane="A0A1_1" departPos="4.60" departSpeed="0.91" departDelay="0.00" arrival="403.00" arrivalLane="A4A5_1" arrivalPos="279.20" arrivalSpeed="13.34" duration="187.00" routeLength="1474.60" waitingTime="51.00" waitingCount="3" stopTime="0.00" timeLoss="80.39" rerouteNo="0" devices="tripinfo_f0.36" vType="car" speedFactor="1.07" vaporized=""/>
    <tripinfo id="f0.33" depart="198.00" departLane="A0A1_0" departPos="4.60" departSpeed="4.23" departDelay="0.00" arrival="410.00" arrivalLane="A4A5_1" arrivalPos="279.20" arrivalSpeed="13.56" duration="212.00" routeLength="1474.60" waitingTime="61.00" waitingCount="4" stopTime="0.00" timeLoss="105.19" rerouteNo="0" devices="tripinfo_f0.33" vType="car" speedFactor="1.15" vaporized=""/>
    <tripinfo id="f0.40" depart="240.00" departLane="A0A1_1" departPos="4.60" departSpeed="0.01" departDelay="0.00" arrival="410.00" arrivalLane="A4A5_0" arrivalPos="279.20" arrivalSpeed="12.39" duration="170.00" routeLength="1474.60" waitingTime="36.00" waitingCount="2" stopTime="0.00" timeLoss="57.87" rerouteNo="0" devices="tripinfo_f0.40" vType="car" speedFactor="0.95" vaporized=""/>
    <tripinfo id="f0.46" depart="276.00" departLane="A0A1_1" departPos="4.60" departSpeed="1.55" departDelay="0.00" arrival="412.00" arrivalLane="A4A5_1" arrivalPos="279.20" arrivalSpeed="13.64" duration="136.00" routeLength="1474.60" waitingTime="8.00" waitingCount="1" stopTime="0.00" timeLoss="29.46" rerouteNo="0" devices="tripinfo_f0.46" vType="car" speedFactor="1.03" vaporized=""/>
    <tripinfo id="f0.48" depart="288.00" departLane="A0A1_1" departPos="4.60" departSpeed="2.16" departDelay="0.00" arrival="416.00" arrivalLane="A4A5_1" arrivalPos="279.20" arrivalSpeed="13.63" duration="128.00" routeLength="1474.60" waitingTime="3.00" waitingCount="1" stopTime="0.00" timeLoss="21.31" rerouteNo="0" devices="tripinfo_f0.48" vType="car" speedFactor="1.04" vaporized=""/>
    <tripinfo id="f0.31" depart="186.00" departLane="A0A1_0" departPos="4.60" departSpeed="5.66" departDelay="0.00" arrival="418.00" arrivalLane="A4A5_0" arrivalPos="279.20" arrivalSpeed="10.92" duration="232.00" routeLength="1474.60" waitingTime="69.00" waitingCount="4" stopTime="0.00" timeLoss="102.43" rerouteNo="0" devices="tripinfo_f0.31" vType="car" speedFactor="0.82" vaporized=""/>
    <tripinfo id="f0.50" depart="300.00" departLane="A0A1_1" departPos="4.60" departSpeed="1.65" departDelay="0.00" arrival="418.00" arrivalLane="A4A5_1" arrivalPos="279.20" arrivalSpeed="12.68" duration="118.00" routeLength="1474.60" waitingTime="0.00" waitingCount="0" stopTime="0.00" timeLoss="11.54" rerouteNo="0" devices="tripinfo_f0.50" vType="car" speedFactor="1.14" vaporized=""/>
    <tripinfo id="f0.41" depart="246.00" departLane="A0A1_0" departPos="4.60" departSpeed="2.59" departDelay="0.00" arrival="432.00" arrivalLane="A4A5_0" arrivalPos="279.20" arrivalSpeed="12.52" duration="186.00" routeLength="1474.60" waitingTime="37.00" waitingCount="5" stopTime="0.00" timeLoss="71.75" rerouteNo="0" devices="tripinfo_f0.41" vType="car" speedFactor="0.94" vaporized=""/>
    <tripinfo id="f0.39" depart="234.00" departLane="A0A1_1" departPos="4.60" departSpeed="0.00" departDelay="0.00" arrival="436.00" arrivalLane="A4A5_0" arrivalPos="279.20" arrivalSpeed="11.30" duration="202.00" routeLength="1474.60" waitingTime="44.00" waitingCount="5" stopTime="0.00" timeLoss="78.48" rerouteNo="0" devices="tripinfo_f0.39" vType="car" speedFactor="0.86" vaporized=""/>
    <tripinfo id="f0.51" depart="306.00" departLane="A0A1_1" departPos="4.60" departSpeed="1.09" departDelay="0.00" arrival="436.00" arrivalLane="A4A5_1" arrivalPos="279.20" arrivalSpeed="11.49" duration="130.00" routeLength="1474.60" waitingTime="0.00" waitingCount="0" stopTime="0.00" timeLoss="12.24" rerouteNo="0" devices="tripinfo_f0.51" vType="car" speedFactor="0.91" vaporized=""/>
    <tripinfo id="f0.52" depart="312.00" departLane="A0A1_1" departPos="4.60" departSpeed="3.08" departDelay="0.00" arrival="437.00" arrivalLane="A4A5_1" arrivalPos="279.20" arrivalSpeed="13.29" duration="125.00" routeLength="1474.60" waitingTime="0.00" waitingCount="0" stopTime="0.00" timeLoss="18.64" rerouteNo="0" devices="tripinfo_f0.52 routing_f0.52" vType="car" speedFactor="1.05" vaporized=""/>
    <tripinfo id="f0.45" depart="270.00" departLane="A0A1_1" departPos="4.60" departSpeed="1.63" departDelay="0.00" arrival="439.00" arrivalLane="A4A5_0" arrivalPos="279.20" arrivalSpeed="11.30" duration="169.00" routeLength="1474.60" waitingTime="11.00" waitingCount="2" stopTime="0.00" timeLoss="43.23" rerouteNo="0" devices="tripinfo_f0.45" vType="car" speedFactor="0.85" vaporized=""/>
    <tripinfo id="f0.54" depart="324.00" departLane="A0A1_1" departPos="4.60" departSpeed="11.17" departDelay="0.00" arrival="439.00" arrivalLane="A4A5_1" arrivalPos="279.20" arrivalSpeed="12.87" duration="115.00" routeLength="1474.60" waitingTime="0.00" waitingCount="0" stopTime="0.00" timeLoss="8.44" rerouteNo="0" devices="tripinfo_f0.54" vType="car" speedFactor="1.07" vaporized=""/>
    <tripinfo id="f0.53" depart="318.00" departLane="A0A1_0" departPos="4.60" departSpeed="3.72" departDelay="0.00" arrival="441.00" arrivalLane="A4A5_0" arrivalPos="279.20" arrivalSpeed="13.87" duration="123.00" routeLength="1474.60" waitingTime="3.00" waitingCount="1" stopTime="0.00" timeLoss="15.90" rerouteNo="0" devices="tripinfo_f0.53" vType="car" speedFactor="1.10" vaporized=""/>
    <tripinfo id="f0.55" depart="330.00" departLane="A0A1_0" departPos="4.60" departSpeed="10.18" departDelay="0.00" arrival="442.00" arrivalLane="A4A5_1" arrivalPos="279.20" arrivalSpeed="12.70" duration="112.00" routeLength="1474.60" waitingTime="0.00" waitingCount="0" stopTime="0.00" timeLoss="5.35" rerouteNo="0" devices="tripinfo_f0.55" vType="car" speedFactor="1.14" vaporized=""/>
    <tripinfo id="f0.28" depart="168.00" departLane="A0A1_0" departPos="4.60" departSpeed="4.80" departDelay="0.00" arrival="458.00" arrivalLane="A4A5_0" arrivalPos="279.20" arrivalSpeed="13.55" duration="290.00" routeLength="2048.16" waitingTime="97.00" waitingCount="6" stopTime="0.00" timeLoss="140.44" rerouteNo="1" devices="tripinfo_f0.28 routing_f0.28" vType="car" speedFactor="1.08" vaporized=""/>
    <tripinfo id="f0.57" depart="342.00" departLane="A0A1_1" departPos="4.60" departSpeed="13.50" departDelay="0.00" arrival="461.00" arrivalLane="A4A5_0" arrivalPos="279.20" arrivalSpeed="12.26" duration="119.00" routeLength="1474.60" waitingTime="0.00" waitingCount="0" stopTime="0.00" timeLoss="9.79" rerouteNo="0" devices="tripinfo_f0.57" vType="car" speedFactor="0.97" vaporized=""/>
    <tripinfo id="f0.58" depart="348.00" departLane="A0A1_0" departPos="4.60" departSpeed="12.25" departDelay="0.00" arrival="467.00" arrivalLane="A4A5_0" arrivalPos="279.20" arrivalSpeed="12.11" duration="119.00" routeLength="1474.60" waitingTime="0.00" waitingCount="0" stopTime="0.00" timeLoss="5.71" rerouteNo="0" devices="tripinfo_f0.58 routing_f0.58" vType="car" speedFactor="0.94" vaporized=""/>
    <tripinfo id="f0.56" depart="336.00" departLane="A0A1_1" departPos="4.60" departSpeed="12.11" departDelay="0.00" arrival="470.00" arrivalLane="A4A5_0" arrivalPos="279.20" arrivalSpeed="11.57" duration="134.00" routeLength="1474.60" waitingTime="0.00" waitingCount="0" stopTime="0.00" timeLoss="11.76" rerouteNo="0" devices="tripinfo_f0.56" vType="car" speedFactor="0.87" vaporized=""/>
    <tripinfo id="f0.59" depart="354.00" departLane="A0A1_1" departPos="4.60" departSpeed="12.18" departDelay="0.00" arrival="487.00" arrivalLane="A4A5_0" arrivalPos="279.20" arrivalSpeed="11.23" duration="133.00" routeLength="1474.60" waitingTime="0.00" waitingCount="0" stopTime="0.00" timeLoss="11.61" rerouteNo="0" devices="tripinfo_f0.59" vType="car" speedFactor="0.88" vaporized=""/>
    <tripinfo id="f0.60" depart="360.00" departLane="A0A1_1" departPos="4.60" departSpeed="12.17" departDelay="0.00" arrival="489.00" arrivalLane="A4A5_1" arrivalPos="279.20" arrivalSpeed="11.71" duration="129.00" routeLength="1474.60" waitingTime="0.00" waitingCount="0" stopTime="0.00" timeLoss="7.26" rerouteNo="0" devices="tripinfo_f0.60" vType="car" speedFactor="0.88" vaporized=""/>
    <tripinfo id="f0.61" depart="366.00" departLane="A0A1_0" departPos="4.60" departSpeed="11.98" departDelay="0.00" arrival="489.00" arrivalLane="A4A5_0" arrivalPos="279.20" arrivalSpeed="12.68" duration="123.00" routeLength="1474.60" waitingTime="0.00" waitingCount="0" stopTime="0.00" timeLoss="16.08" rerouteNo="0" devices="tripinfo_f0.61" vType="car" speedFactor="1.16" vaporized=""/>
    <tripinfo id="f0.62" depart="372.00" departLane="A0A1_1" departPos="4.60" departSpeed="13.89" departDelay="0.00" arrival="491.00" arrivalLane="A4A5_1" arrivalPos="279.20" arrivalSpeed="13.23" duration="119.00" routeLength="1474.60" waitingTime="0.00" waitingCount="0" stopTime="0.00" timeLoss="11.94" rerouteNo="0" devices="tripinfo_f0.62 routing_f0.62" vType="car" speedFactor="1.08" vaporized=""/>
    <tripinfo id="f0.30" depart="180.00" departLane="A0A1_1" departPos="4.60" departSpeed="5.35" departDelay="0.00" arrival="494.00" arrivalLane="A4A5_0" arrivalPos="279.20" arrivalSpeed="13.62" duration="314.00" routeLength="2048.16" waitingTime="116.00" waitingCount="6" stopTime="0.00" timeLoss="163.58" rerouteNo="1" devices="tripinfo_f0.30 routing_f0.30" vType="car" speedFactor="1.08" vaporized=""/>
    <tripinfo id="f0.63" depart="378.00" departLane="A0A1_1" departPos="4.60" departSpeed="13.89" departDelay="0.00" arrival="497.00" arrivalLane="A4A5_0" arrivalPos="279.20" arrivalSpeed="13.26" duration="119.00" routeLength="1474.60" waitingTime="1.00" waitingCount="1" stopTime="0.00" timeLoss="12.06" rerouteNo="0" devices="tripinfo_f0.63" vType="car" speedFactor="1.10" vaporized=""/>
    <tripinfo id="f0.64" depart="384.00" departLane="A0A1_0" departPos="4.60" departSpeed="13.12" departDelay="0.00" arrival="503.00" arrivalLane="A4A5_0" arrivalPos="279.20" arrivalSpeed="12.90" duration="119.00" routeLength="1474.60" waitingTime="0.00" waitingCount="0" stopTime="0.00" timeLoss="6.08" rerouteNo="0" devices="tripinfo_f0.64 routing_f0.64" vType="car" speedFactor="0.94" vaporized=""/>
    <tripinfo id="f0.27" depart="162.00" departLane="A0A1_1" departPos="4.60" departSpeed="0.00" departDelay="0.00" arrival="508.00" arrivalLane="A4A5_0" arrivalPos="279.20" arrivalSpeed="13.12" duration="346.00" routeLength="2048.16" waitingTime="149.00" waitingCount="7" stopTime="0.00" timeLoss="195.31" rerouteNo="1" devices="tripinfo_f0.27 routing_f0.27" vType="car" speedFactor="1.00" vaporized=""/>
    <tripinfo id="f0.47" depart="282.00" departLane="A0A1_0" departPos="4.60" departSpeed="2.36" departDelay="0.00" arrival="516.00" arrivalLane="A4A5_0" arrivalPos="279.20" arrivalSpeed="12.35" duration="234.00" routeLength="2048.16" waitingTime="29.00" waitingCount="4" stopTime="0.00" timeLoss="71.35" rerouteNo="1" devices="tripinfo_f0.47 routing_f0.47" vType="car" speedFactor="0.92" vaporized=""/>
    <tripinfo id="f0.35" depart="210.00" departLane="A0A1_1" departPos="4.60" departSpeed="2.57" departDelay="0.00" arrival="518.00" arrivalLane="A4A5_0" arrivalPos="279.20" arrivalSpeed="12.67" duration="308.00" routeLength="2048.16" waitingTime="95.00" waitingCount="6" stopTime="0.00" timeLoss="157.84" rerouteNo="1" devices="tripinfo_f0.35 routing_f0.35" vType="car" speedFactor="1.06" vaporized=""/>
    <tripinfo id="f0.65" depart="390.00" departLane="A0A1_1" departPos="4.60" departSpeed="13.89" departDelay="0.00" arrival="552.00" arrivalLane="A4A5_0" arrivalPos="279.20" arrivalSpeed="12.94" duration="162.00" routeLength="1474.60" waitingTime="41.00" waitingCount="1" stopTime="0.00" timeLoss="55.30" rerouteNo="0" devices="tripinfo_f0.65 routing_f0.65" vType="car" speedFactor="1.05" vaporized=""/>
    <tripinfo id="f0.49" depart="294.00" departLane="A0A1_0" departPos="4.60" departSpeed="1.34" departDelay="0.00" arrival="566.00" arrivalLane="A4A5_0" arrivalPos="279.20" arrivalSpeed="13.58" duration="272.00" routeLength="2048.16" waitingTime="81.00" waitingCount="3" stopTime="0.00" timeLoss="122.07" rerouteNo="1" devices="tripinfo_f0.49 routing_f0.49" vType="car" speedFactor="1.02" vaporized=""/>
    <tripinfo id="f0.37" depart="222.00" departLane="A0A1_1" departPos="4.60" departSpeed="0.28" departDelay="0.00" arrival="569.00" arrivalLane="A4A5_0" arrivalPos="279.20" arrivalSpeed="12.73" duration="347.00" routeLength="2048.16" waitingTime="146.00" waitingCount="8" stopTime="0.00" timeLoss="196.78" rerouteNo="1" devices="tripinfo_f0.37 routing_f0.37" vType="car" speedFactor="1.06" vaporized=""/>
    <tripinfo id="f0.66" depart="396.00" departLane="A0A1_0" departPos="4.60" departSpeed="13.26" departDelay="0.00" arrival="589.00" arrivalLane="A4A5_0" arrivalPos="279.20" arrivalSpeed="13.72" duration="193.00" routeLength="1474.60" waitingTime="71.00" waitingCount="2" stopTime="0.00" timeLoss="86.48" rerouteNo="0" devices="tripinfo_f0.66" vType="car" speedFactor="1.09" vaporized=""/>
    <tripinfo id="f0.67" depart="402.00" departLane="A0A1_1" departPos="4.60" departSpeed="13.89" departDelay="0.00" arrival="589.00" arrivalLane="A4A5_1" arrivalPos="279.20" arrivalSpeed="13.85" duration="187.00" routeLength="1474.60" waitingTime="64.00" waitingCount="2" stopTime="0.00" timeLoss="80.47" rerouteNo="0" devices="tripinfo_f0.67" vType="car" speedFactor="1.04" vaporized=""/>
    <tripinfo id="f0.38" depart="228.00" departLane="A0A1_1" departPos="4.60" departSpeed="0.03" departDelay="0.00" arrival="607.00" arrivalLane="A4A5_0" arrivalPos="279.20" arrivalSpeed="12.63" duration="379.00" routeLength="2048.16" waitingTime="154.00" waitingCount="9" stopTime="0.00" timeLoss="215.15" rerouteNo="1" devices="tripinfo_f0.38 routing_f0.38" vType="car" speedFactor="0.92" vaporized=""/>
    <tripinfo id="f0.68" depart="408.00" departLane="A0A1_0" departPos="4.60" departSpeed="13.42" departDelay="0.00" arrival="624.00" arrivalLane="A4A5_0" arrivalPos="279.20" arrivalSpeed="13.01" duration="216.00" routeLength="1474.60" waitingTime="88.00" waitingCount="3" stopTime="0.00" timeLoss="109.74" rerouteNo="0" devices="tripinfo_f0.68" vType="car" speedFactor="1.08" vaporized=""/>
    <tripinfo id="f0.69" depart="414.00" departLane="A0A1_1" departPos="4.60" departSpeed="13.88" departDelay="0.00" arrival="624.00" arrivalLane="A4A5_1" arrivalPos="279.20" arrivalSpeed="13.16" duration="210.00" routeLength="1474.60" waitingTime="83.00" waitingCount="3" stopTime="0.00" timeLoss="103.61" rerouteNo="0" devices="tripinfo_f0.69" vType="car" speedFactor="1.00" vaporized=""/>
    <tripinfo id="f0.70" depart="420.00" departLane="A0A1_0" departPos="4.60" departSpeed="13.31" departDelay="0.00" arrival="659.00" arrivalLane="A4A5_0" arrivalPos="279.20" arrivalSpeed="13.06" duration="239.00" routeLength="1474.60" waitingTime="108.00" waitingCount="4" stopTime="0.00" timeLoss="132.18" rerouteNo="0" devices="tripinfo_f0.70" vType="car" speedFactor="1.02" vaporized=""/>
    <tripinfo id="f0.71" depart="426.00" departLane="A0A1_1" departPos="4.60" departSpeed="13.64" departDelay="0.00" arrival="660.00" arrivalLane="A4A5_0" arrivalPos="279.20" arrivalSpeed="13.23" duration="234.00" routeLength="1474.60" waitingTime="94.00" waitingCount="5" stopTime="0.00" timeLoss="125.15" rerouteNo="0" devices="tripinfo_f0.71" vType="car" speedFactor="0.98" vaporized=""/>
    <tripinfo id="f0.73" depart="438.00" departLane="A0A1_1" departPos="4.60" departSpeed="13.62" departDelay="0.00" arrival="674.00" arrivalLane="A4A5_1" arrivalPos="279.20" arrivalSpeed="12.40" duration="236.00" routeLength="1474.60" waitingTime="103.00" waitingCount="4" stopTime="0.00" timeLoss="127.36" rerouteNo="0" devices="tripinfo_f0.73 routing_f0.73" vType="car" speedFactor="0.98" vaporized=""/>